FoamFile
{
    version     2.0;
    format      ascii;
    class       volScalarField;
    location    "0";
    object      rho;
}
dimensions      [1 -3 0 0 0 0 0];
internalField   uniform 1.18;
boundaryField
{
    walls
    {
        type zeroGradient;
    }
    frontAndBack
    {
        type empty;
    }
    inletOutlet
    {
        type zeroGradient;
    }
}
