FoamFile
{
    version     2.0;
    format      ascii;
    class       volScalarField;
    location    "0";
    object      T;
}
dimensions      [0 0 0 1 0 0 0];
internalField   uniform 300;
boundaryField
{
    inlet
    {
        type            totalTemperature;
        T0              uniform 300;
        gamma           1.4;
        beta            0.0;
        value           uniform 300;
    }
    farfield
    {
        type            zeroGradient;
    }
    body
    {
        type            fixedValue;
        value           uniform 300;  // isothermal body (illustrative)
    }
    axis
    {
        type            wedge;
    }
    symmetryPlane
    {
        type            wedge;
    }
}
