FoamFile
{
    version     2.0;
    format      ascii;
    class       volScalarField;
    location    "0";
    object      T;
}
dimensions      [0 0 0 1 0 0 0];
internalField   uniform 300;
boundaryField
{
    inlet
    {
        type            totalTemperature;
        T0              uniform 300;
        gamma           1.4;
        beta            0.0;
        value           uniform 300;
    }
    outlet
    {
        type            zeroGradient;
    }
    plate
    {
        type            fixedValue;
        value           uniform 300;  // isothermal plate; adjust as needed
    }
    farfield
    {
        type            zeroGradient;
    }
    frontAndBack
    {
        type            empty;
    }
}
